LAMMPS data file

# Mixture composition:
#   137 C4H10 molecules

2 atom types
2 bond types
2 angle types
1 dihedral types

548 atoms
411 bonds
274 angles
137 dihedrals

0. 28. xlo xhi
0. 28. ylo yhi
0. 28. zlo zhi

Masses

1 15.035
2 14.027

Pair Coeffs

1 0.194726 3.75
2 0.091402 3.95

Bond Coeffs

1 95.877 1.54
2 95.877 1.54

Angle Coeffs

1 62.0965 114.
2 62.0965 114.

Dihedral Coeffs

1 1.41095 -0.271 3.14484 0.

Atoms

1 1 1 0. 5.914115 17.002791 2.563527
2 1 2 0. 6.205684 17.128875 4.070408
3 1 2 0. 5.085218 17.819934 4.869528
4 1 2 0. 5.376787 17.946018 6.376409
5 2 1 0. 21.080907 21.290029 23.486872
6 2 2 0. 20.569155 21.884407 24.812174
7 2 2 0. 19.174418 22.529614 24.712092
8 2 2 0. 18.662667 23.123992 26.037394
9 3 1 0. 12.612062 15.843689 8.658029
10 3 2 0. 11.714812 16.351348 9.802068
11 3 2 0. 11.975922 17.81592 10.200126
12 3 2 0. 11.078672 18.323579 11.344166
13 4 1 0. 9.715877 5.587784 6.686458
14 4 2 0. 10.290703 7.008928 6.833169
15 4 2 0. 10.757437 7.635885 5.506262
16 4 2 0. 11.332263 9.05703 5.652973
17 5 1 0. 6.538396 9.671641 9.338094
18 5 2 0. 5.649164 10.641781 10.137905
19 5 2 0. 6.429312 11.562282 11.094799
20 5 2 0. 5.540081 12.532421 11.894609
21 6 1 0. 16.305908 1.972565 10.583314
22 6 2 0. 17.247402 3.156139 10.873731
23 6 2 0. 17.06137 4.352609 9.922179
24 6 2 0. 18.002864 5.536183 10.212596
25 7 1 0. 13.224443 15.441012 19.809567
26 7 2 0. 13.080496 16.561799 18.76328
27 7 2 0. 12.911254 17.967099 19.369984
28 7 2 0. 12.767307 19.087885 18.323698
29 8 1 0. 19.283025 16.77423 13.479342
30 8 2 0. 19.926312 15.523176 12.852727
31 8 2 0. 19.052536 14.258197 12.941862
32 8 2 0. 19.695823 13.007142 12.315248
33 9 1 0. 25.651767 10.865696 1.960352
34 9 2 0. 26.051096 12.26518 2.46392
35 9 2 0. 25.152995 13.4 1.937614
36 9 2 0. 25.552323 14.799572 2.441181
37 10 1 0. 26.03312 19.740809 8.046116
38 10 2 0. 24.649769 20.127332 8.60158
39 10 2 0. 24.531679 21.60607 9.015088
40 10 2 0. 23.148328 21.992594 9.570553
41 11 1 0. 1.956585 22.209647 17.924097
42 11 2 0. 3.395997 21.726295 17.667065
43 11 2 0. 4.346197 22.828371 17.162934
44 11 2 0. 5.785608 22.345019 16.905902
45 12 1 0. 19.066751 21.535145 9.677363
46 12 2 0. 18.806194 20.797322 11.00376
47 12 2 0. 18.692297 21.727313 12.225949
48 12 2 0. 18.431741 20.989491 13.552346
49 13 1 0. 8.478922 15.457165 26.025962
50 13 2 0. 9.450683 14.545013 25.254431
51 13 2 0. 10.737269 14.203252 26.028703
52 13 2 0. 11.70903 13.2911 25.257172
53 14 1 0. 13.980891 12.35 7.424706
54 14 2 0. 15.420607 12.798546 7.73716
55 14 2 0. 15.614455 13.328836 9.169925
56 14 2 0. 17.054172 13.777379 9.482378
57 15 1 0. 18.525541 9.335714 22.263167
58 15 2 0. 19.957911 8.827535 22.014832
59 15 2 0. 21.055725 9.840055 22.390608
60 15 2 0. 22.488095 9.331876 22.142273
61 16 1 0. 15.109971 6.8884 13.804325
62 16 2 0. 14.83858 6.622621 12.311908
63 16 2 0. 14.10564 7.77128 11.594285
64 16 2 0. 13.834249 7.505501 10.101868
65 17 1 0. 1.973048 7.873271 18.785188
66 17 2 0. 2.612542 9.220225 19.170369
67 17 2 0. 1.970337 10.438404 18.481012
68 17 2 0. 2.609831 11.785357 18.866194
69 18 1 0. 1.969113 20.433748 13.212463
70 18 2 0. 2.616536 21.703854 13.794936
71 18 2 0. 1.928526 23.012146 13.36295
72 18 2 0. 2.575949 24.282252 13.945423
73 19 1 0. 26.034278 10.619966 6.651853
74 19 2 0. 24.901225 10.085409 5.756287
75 19 2 0. 25.153677 8.669924 5.20468
76 19 2 0. 24.020625 8.135366 4.309113
77 20 1 0. 17.753176 1.965977 5.795139
78 20 2 0. 17.98233 1.975256 4.272312
79 20 2 0. 16.950853 2.808117 3.488733
80 20 2 0. 17.18 2.817396 1.965906
81 21 1 0. 9.363437 15.146205 21.265981
82 21 2 0. 8.091006 14.327422 21.552536
83 21 2 0. 6.781207 15.102351 21.316932
84 21 2 0. 5.508776 14.283568 21.603487
85 22 1 0. 21.967966 11.712615 19.034519
86 22 2 0. 20.701215 11.669336 18.159837
87 22 2 0. 20.960508 11.244362 16.702524
88 22 2 0. 19.693757 11.201084 15.827842
89 23 1 0. 14.653717 11.031464 21.871593
90 23 2 0. 14.984705 11.7733 23.179922
91 23 2 0. 14.929711 10.883505 24.435646
92 23 2 0. 15.260699 11.625341 25.743976
93 24 1 0. 2.110183 7.394419 25.654321
94 24 2 0. 2.178068 8.93167 25.716396
95 24 2 0. 3.591873 9.486436 25.971327
96 24 2 0. 3.659759 11.023686 26.033402
97 25 1 0. 18.462064 5.434138 15.31305
98 25 2 0. 19.616672 5.068552 16.264275
99 25 2 0. 19.873994 6.112172 17.367109
100 25 2 0. 21.028602 5.746586 18.318333
101 26 1 0. 15.277194 8.97782 5.829244
102 26 2 0. 15.539069 7.634467 6.535237
103 26 2 0. 15.115912 6.40233 5.714034
104 26 2 0. 15.377787 5.058978 6.420027
105 27 1 0. 12.46355 19.467091 5.738998
106 27 2 0. 11.256195 18.829166 6.451
107 27 2 0. 10.664178 17.613978 5.71314
108 27 2 0. 9.456823 16.976054 6.425141
109 28 1 0. 24.010909 5.031656 6.751797
110 28 2 0. 25.122176 4.148715 6.154217
111 28 2 0. 24.609282 2.849197 5.506303
112 28 2 0. 25.720548 1.966256 4.908723
113 29 1 0. 9.333346 19.053379 20.64274
114 29 2 0. 9.177852 19.587932 22.078594
115 29 2 0. 7.737085 19.990201 22.444614
116 29 2 0. 7.581591 20.524754 23.880467
117 30 1 0. 5.988976 3.614767 21.867866
118 30 2 0. 6.313466 2.584052 20.770628
119 30 2 0. 7.485322 2.989338 19.857338
120 30 2 0. 7.809812 1.958623 18.7601
121 31 1 0. 12.597775 23.663618 20.138449
122 31 2 0. 12.162725 24.40976 21.413441
123 31 2 0. 10.825105 23.921069 22.
124 31 2 0. 10.390054 24.667211 23.274567
125 32 1 0. 11.383169 18.023204 25.263904
126 32 2 0. 10.98801 19.3 26.028996
127 32 2 0. 11.279194 20.604216 25.263683
128 32 2 0. 10.884034 21.880963 26.028775
129 33 1 0. 11.237203 22.075612 10.120903
130 33 2 0. 11.58313 22.113375 8.620733
131 33 2 0. 12.578019 23.223815 8.235094
132 33 2 0. 12.923946 23.261577 6.734924
133 34 1 0. 22.183613 1.971551 18.190088
134 34 2 0. 21.469482 1.966143 19.554489
135 34 2 0. 22.425077 1.996707 20.76176
136 34 2 0. 21.710946 1.991299 22.12616
137 35 1 0. 19.067862 13.247615 22.199443
138 35 2 0. 18.378358 13.772734 23.472406
139 35 2 0. 19.208673 13.58792 24.756159
140 35 2 0. 18.519169 14.113039 26.029122
141 36 1 0. 21.164895 17.954808 20.227035
142 36 2 0. 20.018936 18.579877 19.409928
143 36 2 0. 20.163336 18.397757 17.887568
144 36 2 0. 19.017377 19.022826 17.07046
145 37 1 0. 17.203596 25.508846 20.184659
146 37 2 0. 16.7648 26.059924 18.815217
147 37 2 0. 15.616387 25.269678 18.160801
148 37 2 0. 15.177592 25.820755 16.791359
149 38 1 0. 4.977421 26.109833 4.615746
150 38 2 0. 6.180883 25.339713 4.041122
151 38 2 0. 6.157951 23.82899 4.339098
152 38 2 0. 7.361414 23.05887 3.764473
153 39 1 0. 22.256037 25.66674 11.323613
154 39 2 0. 21.384591 26.028914 12.540581
155 39 2 0. 19.897159 25.665381 12.37629
156 39 2 0. 19.025713 26.027554 13.593258
157 40 1 0. 9.642093 2.765167 15.355281
158 40 2 0. 10.72172 3.164039 16.378466
159 40 2 0. 11.457996 1.968206 17.010511
160 40 2 0. 12.537623 2.367078 18.033695
161 41 1 0. 23.637937 1.97025 13.653588
162 41 2 0. 22.215037 2.013809 14.241004
163 41 2 0. 21.098298 1.964003 13.181754
164 41 2 0. 19.675398 2.007562 13.76917
165 42 1 0. 21.802337 5.349843 11.274175
166 42 2 0. 22.074157 6.124004 12.577397
167 42 2 0. 21.027782 7.209529 12.890982
168 42 2 0. 21.299602 7.98369 14.194204
169 43 1 0. 24.425299 26.047984 1.962156
170 43 2 0. 24.507483 24.840542 2.914484
171 43 2 0. 23.136489 24.268869 3.320888
172 43 2 0. 23.218673 23.061427 4.273216
173 44 1 0. 25.130346 11.213827 10.452602
174 44 2 0. 24.331036 11.149049 11.76733
175 44 2 0. 25.128309 11.593542 13.007645
176 44 2 0. 24.328999 11.528765 14.322373
177 45 1 0. 1.956907 12.034137 10.309598
178 45 2 0. 1.957465 12.867449 9.014534
179 45 2 0. 1.969219 12.023325 7.726545
180 45 2 0. 1.969777 12.856637 6.431481
181 46 1 0. 9.583876 26.033586 18.900422
182 46 2 0. 9.746837 26.008801 17.369269
183 46 2 0. 11.21184 26.027226 16.894898
184 46 2 0. 11.374801 26.002442 15.363745
185 47 1 0. 16.29901 21.117132 22.384747
186 47 2 0. 16.319895 20.634699 20.922413
187 47 2 0. 16.041387 21.745186 19.892437
188 47 2 0. 16.062272 21.262753 18.430102
189 48 1 0. 26.047289 17.301917 22.532276
190 48 2 0. 25.201741 16.94334 23.768428
191 48 2 0. 25.951923 16.102296 24.817938
192 48 2 0. 25.106374 15.74372 26.054089
193 49 1 0. 14.81399 22.249774 25.890589
194 49 2 0. 14.735476 23.596022 25.146915
195 49 2 0. 13.761287 24.606101 25.781182
196 49 2 0. 13.682773 25.952349 25.037508
197 50 1 0. 9.95478 6.585274 14.401907
198 50 2 0. 10.532138 5.914058 13.141857
199 50 2 0. 9.811517 6.304589 11.838097
200 50 2 0. 10.388874 5.633372 10.578047
201 51 1 0. 2.499747 13.302999 15.221291
202 51 2 0. 1.968941 14.712144 14.898557
203 51 2 0. 2.503865 15.812405 15.833908
204 51 2 0. 1.97306 17.221549 15.511174
205 52 1 0. 3.286343 12.924043 1.989252
206 52 2 0. 2.874362 14.15769 2.813865
207 52 2 0. 2.37925 15.342506 1.963762
208 52 2 0. 1.96727 16.576153 2.788375
209 53 1 0. 6.946235 23.825099 21.263313
210 53 2 0. 5.511984 23.404031 20.892875
211 53 2 0. 4.796894 22.58767 21.985486
212 53 2 0. 3.362642 22.166602 21.615047
213 54 1 0. 9.653754 15.83051 1.973573
214 54 2 0. 10.65362 14.659293 1.984483
215 54 2 0. 9.990534 13.269459 1.967779
216 54 2 0. 10.990401 12.098243 1.978689
217 55 1 0. 9.400402 1.970489 23.157016
218 55 2 0. 10.593624 2.820523 22.682398
219 55 2 0. 11.867567 2.005237 22.392608
220 55 2 0. 13.060789 2.855271 21.917989
221 56 1 0. 13.223467 10.142871 15.021623
222 56 2 0. 14.372386 10.749144 14.194568
223 56 2 0. 14.213381 12.254395 13.910781
224 56 2 0. 15.362299 12.860668 13.083727
225 57 1 0. 17.941888 3.759932 26.021982
226 57 2 0. 17.702635 5.281206 26.03105
227 57 2 0. 16.423667 5.718544 25.293095
228 57 2 0. 16.184414 7.239818 25.302163
229 58 1 0. 2.892088 26.039247 22.231759
230 58 2 0. 2.024468 25.806221 23.482572
231 58 2 0. 2.832696 25.629652 24.781492
232 58 2 0. 1.965076 25.396625 26.032305
233 59 1 0. 19.480546 15.302849 5.34321
234 59 2 0. 19.187921 13.79125 5.375454
235 59 2 0. 17.960168 13.373072 4.545184
236 59 2 0. 17.667543 11.861473 4.577428
237 60 1 0. 1.974399 3.065914 12.628082
238 60 2 0. 1.971165 3.751201 14.007202
239 60 2 0. 1.97227 5.289824 13.942104
240 60 2 0. 1.969036 5.975111 15.321224
241 61 1 0. 7.409195 6.925536 17.402979
242 61 2 0. 6.215577 5.973016 17.601933
243 61 2 0. 6.161726 4.815851 16.587207
244 61 2 0. 4.968108 3.863331 16.786161
245 62 1 0. 19.119489 4.967755 21.993929
246 62 2 0. 18.015093 3.897633 22.076079
247 62 2 0. 17.878507 3.039577 20.804591
248 62 2 0. 16.774111 1.969455 20.886741
249 63 1 0. 25.74513 23.940971 11.991369
250 63 2 0. 26.030877 24.442524 13.419092
251 63 2 0. 24.764965 24.760355 14.236434
252 63 2 0. 25.050712 25.261908 15.664157
253 64 1 0. 14.25487 26.025896 4.246566
254 64 2 0. 12.975437 26.027467 3.389449
255 64 2 0. 11.672029 26.028211 4.209649
256 64 2 0. 10.392596 26.029782 3.352533
257 65 1 0. 22.860892 12.373286 25.643517
258 65 2 0. 24.265541 11.884754 26.04339
259 65 2 0. 24.64075 10.510399 25.458611
260 65 2 0. 26.045399 10.021866 25.858484
261 66 1 0. 8.902933 9.901416 26.025736
262 66 2 0. 10.332865 9.599431 25.540249
263 66 2 0. 10.393057 8.857934 24.191858
264 66 2 0. 11.82299 8.55595 23.706371
265 67 1 0. 14.880499 12.781244 1.934376
266 67 2 0. 14.669485 14.189705 2.520304
267 67 2 0. 14.05765 14.195 3.933538
268 67 2 0. 13.846636 15.60346 4.519466
269 68 1 0. 9.51802 22.150375 18.182408
270 68 2 0. 10.364746 22.034206 16.901331
271 68 2 0. 9.610279 22.418155 15.614877
272 68 2 0. 10.457006 22.301986 14.3338
273 69 1 0. 9.783844 10.306006 13.087416
274 69 2 0. 10.775503 10.133582 11.921876
275 69 2 0. 10.200767 10.523981 10.547515
276 69 2 0. 11.192425 10.351556 9.381975
277 70 1 0. 23.329717 6.741426 25.940217
278 70 2 0. 21.806702 6.946229 25.839813
279 70 2 0. 21.354831 8.402335 26.056993
280 70 2 0. 19.831816 8.607139 25.956589
281 71 1 0. 25.642841 25.355918 6.788083
282 71 2 0. 24.265877 26.035532 6.671051
283 71 2 0. 23.157314 25.350091 7.491331
284 71 2 0. 21.780351 26.029704 7.374299
285 72 1 0. 7.77402 1.981279 6.495741
286 72 2 0. 8.616179 1.956804 7.784837
287 72 2 0. 7.782126 1.997579 9.078782
288 72 2 0. 8.624285 1.973104 10.367879
289 73 1 0. 14.379863 22.285822 14.790639
290 73 2 0. 14.492684 21.259563 13.647983
291 73 2 0. 14.74604 21.887505 12.264834
292 73 2 0. 14.858862 20.861246 11.122178
293 74 1 0. 13.145741 2.952975 13.167144
294 74 2 0. 14.136693 3.098469 14.336949
295 74 2 0. 15.180288 1.968893 14.417997
296 74 2 0. 16.171241 2.114387 15.587803
297 75 1 0. 5.736881 5.876734 26.033513
298 75 2 0. 5.409601 4.397923 25.754935
299 75 2 0. 6.612354 3.449441 25.914212
300 75 2 0. 6.285074 1.97063 25.635633
301 76 1 0. 26.032957 12.127198 21.692372
302 76 2 0. 24.648158 12.638237 22.131428
303 76 2 0. 24.202295 13.929077 21.419713
304 76 2 0. 22.817496 14.440115 21.858768
305 77 1 0. 20.91366 10.01347 5.859028
306 77 2 0. 21.28278 9.062031 7.012333
307 77 2 0. 21.776643 9.779352 8.282432
308 77 2 0. 22.145762 8.827912 9.435737
309 78 1 0. 24.389915 7.72764 19.022334
310 78 2 0. 25.205348 9.031784 19.098989
311 78 2 0. 25.215172 9.842264 17.789552
312 78 2 0. 26.030606 11.146408 17.866208
313 79 1 0. 22.17299 20.682297 15.3694
314 79 2 0. 22.141323 19.54808 14.328175
315 79 2 0. 22.203158 20.035684 12.868717
316 79 2 0. 22.171491 18.901467 11.827492
317 80 1 0. 13.96527 2.662081 25.758047
318 80 2 0. 12.592934 3.294775 26.054681
319 80 2 0. 12.511038 4.796677 25.724254
320 80 2 0. 11.138701 5.42937 26.020889
321 81 1 0. 10.393267 18.454701 15.231496
322 81 2 0. 8.970519 18.636848 14.670952
323 81 2 0. 7.871652 18.668339 15.749424
324 81 2 0. 6.448904 18.850486 15.18888
325 82 1 0. 18.771678 23.478549 16.599858
326 82 2 0. 20.029362 23.256809 17.460476
327 82 2 0. 19.742529 22.637213 18.840848
328 82 2 0. 21. 22.415473 19.701465
329 83 1 0. 4.758756 16.354738 12.636416
330 83 2 0. 3.96354 17.303436 11.720336
331 83 2 0. 3.040218 16.581603 10.72132
332 83 2 0. 2.245003 17.530301 9.80524
333 84 1 0. 19.566213 22.01891 5.789989
334 84 2 0. 19.177778 21.274443 4.499064
335 84 2 0. 19.561416 22.019228 3.206888
336 84 2 0. 19.172981 21.274762 1.915963
337 85 1 0. 15.392471 17.486489 15.587709
338 85 2 0. 15.371448 16.622613 14.313003
339 85 2 0. 15.418276 17.434527 13.005255
340 85 2 0. 15.397253 16.570651 11.730549
341 86 1 0. 2.271164 17.841929 21.90858
342 86 2 0. 3.021508 18.348548 20.662818
343 86 2 0. 4.555 18.323693 20.80204
344 86 2 0. 5.305344 18.830311 19.556278
345 87 1 0. 16.409819 16.94309 7.209477
346 87 2 0. 16.138436 18.361699 6.675155
347 87 2 0. 16.32134 19.472475 7.726024
348 87 2 0. 16.049956 20.891084 7.191702
349 88 1 0. 17.862366 9.882566 8.802845
350 88 2 0. 18.321448 9.473066 10.214636
351 88 2 0. 17.387783 9.953925 11.340977
352 88 2 0. 17.846864 9.544425 12.752768
353 89 1 0. 7.726503 15.851782 10.073905
354 89 2 0. 6.51308 15.447471 9.216154
355 89 2 0. 6.856084 14.496058 8.054792
356 89 2 0. 5.64266 14.091748 7.197041
357 90 1 0. 22.432439 26.033944 26.035392
358 90 2 0. 21.174379 26.038829 25.147213
359 90 2 0. 21.465767 25.846164 23.647356
360 90 2 0. 20.207708 25.851049 22.759177
361 91 1 0. 15.313105 12.311968 17.703122
362 91 2 0. 16.401161 11.437769 18.353899
363 91 2 0. 16.478999 10.008436 17.785968
364 91 2 0. 17.567055 9.134237 18.436745
365 92 1 0. 9.892279 15.05883 13.279924
366 92 2 0. 10.759516 14.15028 14.171012
367 92 2 0. 10.752437 14.542412 15.660234
368 92 2 0. 11.619674 13.633862 16.551321
369 93 1 0. 3.722931 21.942788 10.011428
370 93 2 0. 4.169255 23.411508 10.134954
371 93 2 0. 3.064203 24.431894 9.804388
372 93 2 0. 3.510527 25.900613 9.927914
373 94 1 0. 18.102529 25.986713 5.853406
374 94 2 0. 18.901898 26.025996 4.537706
375 94 2 0. 18.070978 25.675918 3.28926
376 94 2 0. 18.870346 25.715201 1.973561
377 95 1 0. 5.635793 6.418989 5.441946
378 95 2 0. 6.463908 5.587309 4.444883
379 95 2 0. 6.148813 5.88525 2.9672
380 95 2 0. 6.976928 5.05357 1.970137
381 96 1 0. 22.181488 13.574744 9.298458
382 96 2 0. 21.088345 14.574015 8.876444
383 96 2 0. 21.417821 16.040813 9.210434
384 96 2 0. 20.324677 17.040084 8.78842
385 97 1 0. 6.097566 15.580183 17.456166
386 97 2 0. 6.48886 14.724261 16.237196
387 97 2 0. 7.007285 13.319852 16.598406
388 97 2 0. 7.398579 12.46393 15.379436
389 98 1 0. 2.786556 8.903008 12.56983
390 98 2 0. 3.14988 9.48525 13.948449
391 98 2 0. 4.462856 8.934094 14.534895
392 98 2 0. 4.82618 9.516336 15.913515
393 99 1 0. 25.079024 16.304498 11.193062
394 99 2 0. 25.962079 15.859009 12.373467
395 99 2 0. 25.17183 15.491376 13.643094
396 99 2 0. 26.054885 15.045887 14.823498
397 100 1 0. 24.67525 4.833644 16.278933
398 100 2 0. 25.679885 5.762696 15.572413
399 100 2 0. 25.051098 7.04814 15.003324
400 100 2 0. 26.055733 7.977192 14.296804
401 101 1 0. 5.698576 6. 10.625162
402 101 2 0. 5.565336 4.548963 11.122046
403 101 2 0. 6.028418 4.339537 12.575764
404 101 2 0. 5.895178 2.888002 13.072647
405 102 1 0. 6.888831 25.29192 7.97398
406 102 2 0. 7.92902 26.036227 8.831659
407 102 2 0. 9.276029 25.301031 8.960712
408 102 2 0. 10.316218 26.045338 9.818391
409 103 1 0. 25.873694 7.56167 9.145465
410 103 2 0. 25.731957 6.843064 10.50013
411 103 2 0. 26.050407 5.337295 10.446757
412 103 2 0. 25.90867 4.618689 11.801422
413 104 1 0. 14.378473 15.668486 23.580423
414 104 2 0. 14.99642 17.002032 24.040201
415 104 2 0. 15.211929 17.100887 25.56184
416 104 2 0. 15.829876 18.434433 26.021618
417 105 1 0. 12.603044 8.45128 18.536345
418 105 2 0. 11.604616 7.289389 18.693674
419 105 2 0. 10.984369 7.18248 20.099186
420 105 2 0. 9.985942 6.020589 20.256514
421 106 1 0. 10.040157 2.576041 2.252573
422 106 2 0. 11.535723 2.793815 1.956842
423 106 2 0. 12.064589 4.174836 2.386588
424 106 2 0. 13.560155 4.392611 2.090857
425 107 1 0. 21.33881 16.916414 26.032603
426 107 2 0. 20.137142 17.665677 25.427459
427 107 2 0. 19.913914 17.385431 23.929717
428 107 2 0. 18.712246 18.134694 23.324573
429 108 1 0. 25.731914 5.56691 22.182416
430 108 2 0. 26.026095 4.201862 21.533032
431 108 2 0. 25.741648 4.153547 20.020301
432 108 2 0. 26.035829 2.788498 19.370917
433 109 1 0. 11.138156 11.717198 20.20643
434 109 2 0. 9.847838 11.53058 19.386764
435 109 2 0. 8.809396 10.609879 20.054258
436 109 2 0. 7.519078 10.423261 19.234592
437 110 1 0. 21.128296 9.439571 1.95714
438 110 2 0. 21.701989 10.868536 1.980306
439 110 2 0. 20.630036 11.974143 1.967995
440 110 2 0. 21.203729 13.403107 1.991161
441 111 1 0. 7.932781 20.888133 7.014465
442 111 2 0. 8.024755 20.117073 8.344355
443 111 2 0. 7.506781 20.904656 9.562147
444 111 2 0. 7.598754 20.133596 10.892037
445 112 1 0. 13.146772 1.944316 5.461492
446 112 2 0. 12.400948 2.378239 6.737053
447 112 2 0. 13.144505 2.04093 8.042789
448 112 2 0. 12.39868 2.474852 9.31835
449 113 1 0. 25.289463 16.599638 18.720594
450 113 2 0. 24.019003 16.559647 17.85115
451 113 2 0. 23.385507 15.161071 17.731701
452 113 2 0. 22.115047 15.12108 16.862257
453 114 1 0. 25.305179 25.989027 21.541128
454 114 2 0. 24.69983 26.104088 20.129776
455 114 2 0. 23.172277 25.913658 20.085971
456 114 2 0. 22.566928 26.028718 18.674619
457 115 1 0. 1.970774 1.974278 23.122546
458 115 2 0. 2.278852 2.278182 21.644598
459 115 2 0. 2.089254 3.756327 21.256349
460 115 2 0. 2.397332 4.060231 19.7784
461 116 1 0. 1.944365 23.851076 5.754296
462 116 2 0. 1.943765 22.522986 6.533896
463 116 2 0. 1.969744 21.270718 5.637934
464 116 2 0. 1.969144 19.942628 6.417535
465 117 1 0. 24.35062 1.948175 9.342522
466 117 2 0. 22.839738 1.908666 9.637947
467 117 2 0. 21.952929 2.086475 8.391531
468 117 2 0. 20.442047 2.046966 8.686956
469 118 1 0. 17.078874 16.114867 20.349119
470 118 2 0. 17.086062 15.966548 18.816295
471 118 2 0. 18.168955 15.009291 18.284693
472 118 2 0. 18.176144 14.860971 16.751869
473 119 1 0. 12.406967 8.168142 1.957392
474 119 2 0. 13.693358 9.014337 1.984853
475 119 2 0. 14.99 8.183591 1.970687
476 119 2 0. 16.276383 9.029786 1.998148
477 120 1 0. 18.96213 6.244277 2.791894
478 120 2 0. 19.751931 5.661187 3.978409
479 120 2 0. 19.086832 5.892798 5.347934
480 120 2 0. 19.876633 5.309707 6.53445
481 121 1 0. 26.055458 22.75108 18.542953
482 121 2 0. 25.491459 22.242495 19.882672
483 121 2 0. 24.677024 20.940727 19.765645
484 121 2 0. 24.113025 20.432142 21.105364
485 122 1 0. 26.037074 15.622679 7.422911
486 122 2 0. 25.222751 14.483043 6.782827
487 122 2 0. 23.953568 14.955357 6.049552
488 122 2 0. 23.139246 13.815721 5.409467
489 123 1 0. 25.926689 21.283695 1.94788
490 123 2 0. 26.048155 20.496762 3.266054
491 123 2 0. 25.925604 18.970853 3.098181
492 123 2 0. 26.04707 18.18392 4.416355
493 124 1 0. 26.038106 5.67271 1.971451
494 124 2 0. 25.05855 4.484837 1.939368
495 124 2 0. 23.581246 4.886507 2.106206
496 124 2 0. 22.601691 3.698634 2.074123
497 125 1 0. 7.106908 7.326379 22.624174
498 125 2 0. 6.602913 8.774722 22.765209
499 125 2 0. 5.223277 9.022748 22.12749
500 125 2 0. 4.719282 10.471092 22.268524
501 126 1 0. 14.845082 6.371418 21.689352
502 126 2 0. 15.477925 6.338481 20.285776
503 126 2 0. 14.911608 5.238299 19.368997
504 126 2 0. 15.544451 5.205362 17.965421
505 127 1 0. 22.389577 19.204737 5.497512
506 127 2 0. 22.097869 18.120549 4.443451
507 127 2 0. 21.937812 18.665545 3.012031
508 127 2 0. 21.646103 17.581357 1.95797
509 128 1 0. 11.700595 22.566381 1.975891
510 128 2 0. 10.874562 21.54557 2.780388
511 128 2 0. 9.926757 20.689469 1.91995
512 128 2 0. 9.100724 19.668658 2.724447
513 129 1 0. 15.423797 25.912941 8.755088
514 129 2 0. 14.792507 25.909613 10.159745
515 129 2 0. 15.814602 25.791051 11.305548
516 129 2 0. 15.183311 25.787723 12.710205
517 130 1 0. 22.086308 2.99248 25.928272
518 130 2 0. 23.531537 2.472935 26.042227
519 130 2 0. 24.5 3.084743 25.013041
520 130 2 0. 25.945304 2.565198 25.126997
521 131 1 0. 5.815131 26.031989 15.376224
522 131 2 0. 6.441669 25.82815 13.984282
523 131 2 0. 6.782091 24.361842 13.65924
524 131 2 0. 7.408628 24.158003 12.267299
525 132 1 0. 25.982437 19.566979 16.207582
526 132 2 0. 26.055381 19.188327 14.716642
527 132 2 0. 26.033487 20.396367 13.761781
528 132 2 0. 26.10643 20.017715 12.270841
529 133 1 0. 15.448448 22.071346 3.115963
530 133 2 0. 15.254842 20.857279 2.188516
531 133 2 0. 15.417199 19.497992 2.89391
532 133 2 0. 15.223593 18.283925 1.966463
533 134 1 0. 24.469074 23.190846 24.20012
534 134 2 0. 25.419567 22.012227 24.481224
535 134 2 0. 25.089873 21.235114 25.769245
536 134 2 0. 26.040367 20.056495 26.050349
537 135 1 0. 2.307799 4.374081 7.11081
538 135 2 0. 2.075165 5.426255 8.210997
539 135 2 0. 2.207635 6.88129 7.724246
540 135 2 0. 1.975 7.933464 8.824433
541 136 1 0. 9.421544 12.510502 5.801915
542 136 2 0. 8.245565 11.520443 5.709944
543 136 2 0. 7.356725 11.717277 4.467842
544 136 2 0. 6.180746 10.727218 4.375872
545 137 1 0. 3.569074 20.128524 1.988383
546 137 2 0. 3.88036 21.636637 1.971132
547 137 2 0. 2.629166 22.534319 1.954354
548 137 2 0. 2.940452 24.042431 1.937103

Bonds

1 1 1 2
2 2 2 3
3 2 3 4
4 1 5 6
5 2 6 7
6 2 7 8
7 1 9 10
8 2 10 11
9 2 11 12
10 1 13 14
11 2 14 15
12 2 15 16
13 1 17 18
14 2 18 19
15 2 19 20
16 1 21 22
17 2 22 23
18 2 23 24
19 1 25 26
20 2 26 27
21 2 27 28
22 1 29 30
23 2 30 31
24 2 31 32
25 1 33 34
26 2 34 35
27 2 35 36
28 1 37 38
29 2 38 39
30 2 39 40
31 1 41 42
32 2 42 43
33 2 43 44
34 1 45 46
35 2 46 47
36 2 47 48
37 1 49 50
38 2 50 51
39 2 51 52
40 1 53 54
41 2 54 55
42 2 55 56
43 1 57 58
44 2 58 59
45 2 59 60
46 1 61 62
47 2 62 63
48 2 63 64
49 1 65 66
50 2 66 67
51 2 67 68
52 1 69 70
53 2 70 71
54 2 71 72
55 1 73 74
56 2 74 75
57 2 75 76
58 1 77 78
59 2 78 79
60 2 79 80
61 1 81 82
62 2 82 83
63 2 83 84
64 1 85 86
65 2 86 87
66 2 87 88
67 1 89 90
68 2 90 91
69 2 91 92
70 1 93 94
71 2 94 95
72 2 95 96
73 1 97 98
74 2 98 99
75 2 99 100
76 1 101 102
77 2 102 103
78 2 103 104
79 1 105 106
80 2 106 107
81 2 107 108
82 1 109 110
83 2 110 111
84 2 111 112
85 1 113 114
86 2 114 115
87 2 115 116
88 1 117 118
89 2 118 119
90 2 119 120
91 1 121 122
92 2 122 123
93 2 123 124
94 1 125 126
95 2 126 127
96 2 127 128
97 1 129 130
98 2 130 131
99 2 131 132
100 1 133 134
101 2 134 135
102 2 135 136
103 1 137 138
104 2 138 139
105 2 139 140
106 1 141 142
107 2 142 143
108 2 143 144
109 1 145 146
110 2 146 147
111 2 147 148
112 1 149 150
113 2 150 151
114 2 151 152
115 1 153 154
116 2 154 155
117 2 155 156
118 1 157 158
119 2 158 159
120 2 159 160
121 1 161 162
122 2 162 163
123 2 163 164
124 1 165 166
125 2 166 167
126 2 167 168
127 1 169 170
128 2 170 171
129 2 171 172
130 1 173 174
131 2 174 175
132 2 175 176
133 1 177 178
134 2 178 179
135 2 179 180
136 1 181 182
137 2 182 183
138 2 183 184
139 1 185 186
140 2 186 187
141 2 187 188
142 1 189 190
143 2 190 191
144 2 191 192
145 1 193 194
146 2 194 195
147 2 195 196
148 1 197 198
149 2 198 199
150 2 199 200
151 1 201 202
152 2 202 203
153 2 203 204
154 1 205 206
155 2 206 207
156 2 207 208
157 1 209 210
158 2 210 211
159 2 211 212
160 1 213 214
161 2 214 215
162 2 215 216
163 1 217 218
164 2 218 219
165 2 219 220
166 1 221 222
167 2 222 223
168 2 223 224
169 1 225 226
170 2 226 227
171 2 227 228
172 1 229 230
173 2 230 231
174 2 231 232
175 1 233 234
176 2 234 235
177 2 235 236
178 1 237 238
179 2 238 239
180 2 239 240
181 1 241 242
182 2 242 243
183 2 243 244
184 1 245 246
185 2 246 247
186 2 247 248
187 1 249 250
188 2 250 251
189 2 251 252
190 1 253 254
191 2 254 255
192 2 255 256
193 1 257 258
194 2 258 259
195 2 259 260
196 1 261 262
197 2 262 263
198 2 263 264
199 1 265 266
200 2 266 267
201 2 267 268
202 1 269 270
203 2 270 271
204 2 271 272
205 1 273 274
206 2 274 275
207 2 275 276
208 1 277 278
209 2 278 279
210 2 279 280
211 1 281 282
212 2 282 283
213 2 283 284
214 1 285 286
215 2 286 287
216 2 287 288
217 1 289 290
218 2 290 291
219 2 291 292
220 1 293 294
221 2 294 295
222 2 295 296
223 1 297 298
224 2 298 299
225 2 299 300
226 1 301 302
227 2 302 303
228 2 303 304
229 1 305 306
230 2 306 307
231 2 307 308
232 1 309 310
233 2 310 311
234 2 311 312
235 1 313 314
236 2 314 315
237 2 315 316
238 1 317 318
239 2 318 319
240 2 319 320
241 1 321 322
242 2 322 323
243 2 323 324
244 1 325 326
245 2 326 327
246 2 327 328
247 1 329 330
248 2 330 331
249 2 331 332
250 1 333 334
251 2 334 335
252 2 335 336
253 1 337 338
254 2 338 339
255 2 339 340
256 1 341 342
257 2 342 343
258 2 343 344
259 1 345 346
260 2 346 347
261 2 347 348
262 1 349 350
263 2 350 351
264 2 351 352
265 1 353 354
266 2 354 355
267 2 355 356
268 1 357 358
269 2 358 359
270 2 359 360
271 1 361 362
272 2 362 363
273 2 363 364
274 1 365 366
275 2 366 367
276 2 367 368
277 1 369 370
278 2 370 371
279 2 371 372
280 1 373 374
281 2 374 375
282 2 375 376
283 1 377 378
284 2 378 379
285 2 379 380
286 1 381 382
287 2 382 383
288 2 383 384
289 1 385 386
290 2 386 387
291 2 387 388
292 1 389 390
293 2 390 391
294 2 391 392
295 1 393 394
296 2 394 395
297 2 395 396
298 1 397 398
299 2 398 399
300 2 399 400
301 1 401 402
302 2 402 403
303 2 403 404
304 1 405 406
305 2 406 407
306 2 407 408
307 1 409 410
308 2 410 411
309 2 411 412
310 1 413 414
311 2 414 415
312 2 415 416
313 1 417 418
314 2 418 419
315 2 419 420
316 1 421 422
317 2 422 423
318 2 423 424
319 1 425 426
320 2 426 427
321 2 427 428
322 1 429 430
323 2 430 431
324 2 431 432
325 1 433 434
326 2 434 435
327 2 435 436
328 1 437 438
329 2 438 439
330 2 439 440
331 1 441 442
332 2 442 443
333 2 443 444
334 1 445 446
335 2 446 447
336 2 447 448
337 1 449 450
338 2 450 451
339 2 451 452
340 1 453 454
341 2 454 455
342 2 455 456
343 1 457 458
344 2 458 459
345 2 459 460
346 1 461 462
347 2 462 463
348 2 463 464
349 1 465 466
350 2 466 467
351 2 467 468
352 1 469 470
353 2 470 471
354 2 471 472
355 1 473 474
356 2 474 475
357 2 475 476
358 1 477 478
359 2 478 479
360 2 479 480
361 1 481 482
362 2 482 483
363 2 483 484
364 1 485 486
365 2 486 487
366 2 487 488
367 1 489 490
368 2 490 491
369 2 491 492
370 1 493 494
371 2 494 495
372 2 495 496
373 1 497 498
374 2 498 499
375 2 499 500
376 1 501 502
377 2 502 503
378 2 503 504
379 1 505 506
380 2 506 507
381 2 507 508
382 1 509 510
383 2 510 511
384 2 511 512
385 1 513 514
386 2 514 515
387 2 515 516
388 1 517 518
389 2 518 519
390 2 519 520
391 1 521 522
392 2 522 523
393 2 523 524
394 1 525 526
395 2 526 527
396 2 527 528
397 1 529 530
398 2 530 531
399 2 531 532
400 1 533 534
401 2 534 535
402 2 535 536
403 1 537 538
404 2 538 539
405 2 539 540
406 1 541 542
407 2 542 543
408 2 543 544
409 1 545 546
410 2 546 547
411 2 547 548

Angles

1 1 1 2 3
2 2 2 3 4
3 1 5 6 7
4 2 6 7 8
5 1 9 10 11
6 2 10 11 12
7 1 13 14 15
8 2 14 15 16
9 1 17 18 19
10 2 18 19 20
11 1 21 22 23
12 2 22 23 24
13 1 25 26 27
14 2 26 27 28
15 1 29 30 31
16 2 30 31 32
17 1 33 34 35
18 2 34 35 36
19 1 37 38 39
20 2 38 39 40
21 1 41 42 43
22 2 42 43 44
23 1 45 46 47
24 2 46 47 48
25 1 49 50 51
26 2 50 51 52
27 1 53 54 55
28 2 54 55 56
29 1 57 58 59
30 2 58 59 60
31 1 61 62 63
32 2 62 63 64
33 1 65 66 67
34 2 66 67 68
35 1 69 70 71
36 2 70 71 72
37 1 73 74 75
38 2 74 75 76
39 1 77 78 79
40 2 78 79 80
41 1 81 82 83
42 2 82 83 84
43 1 85 86 87
44 2 86 87 88
45 1 89 90 91
46 2 90 91 92
47 1 93 94 95
48 2 94 95 96
49 1 97 98 99
50 2 98 99 100
51 1 101 102 103
52 2 102 103 104
53 1 105 106 107
54 2 106 107 108
55 1 109 110 111
56 2 110 111 112
57 1 113 114 115
58 2 114 115 116
59 1 117 118 119
60 2 118 119 120
61 1 121 122 123
62 2 122 123 124
63 1 125 126 127
64 2 126 127 128
65 1 129 130 131
66 2 130 131 132
67 1 133 134 135
68 2 134 135 136
69 1 137 138 139
70 2 138 139 140
71 1 141 142 143
72 2 142 143 144
73 1 145 146 147
74 2 146 147 148
75 1 149 150 151
76 2 150 151 152
77 1 153 154 155
78 2 154 155 156
79 1 157 158 159
80 2 158 159 160
81 1 161 162 163
82 2 162 163 164
83 1 165 166 167
84 2 166 167 168
85 1 169 170 171
86 2 170 171 172
87 1 173 174 175
88 2 174 175 176
89 1 177 178 179
90 2 178 179 180
91 1 181 182 183
92 2 182 183 184
93 1 185 186 187
94 2 186 187 188
95 1 189 190 191
96 2 190 191 192
97 1 193 194 195
98 2 194 195 196
99 1 197 198 199
100 2 198 199 200
101 1 201 202 203
102 2 202 203 204
103 1 205 206 207
104 2 206 207 208
105 1 209 210 211
106 2 210 211 212
107 1 213 214 215
108 2 214 215 216
109 1 217 218 219
110 2 218 219 220
111 1 221 222 223
112 2 222 223 224
113 1 225 226 227
114 2 226 227 228
115 1 229 230 231
116 2 230 231 232