LAMMPS data file

# Mixture composition:
#   276 C3H8 molecules

2 atom types
1 bond types
1 angle types
0 dihedral types

828 atoms
552 bonds
276 angles
0 dihedrals

0. 32. xlo xhi
0. 32. ylo yhi
0. 32. zlo zhi

Masses

1 15.035
2 14.027

Pair Coeffs

1 0.194726 3.75
2 0.091402 3.95

Bond Coeffs

1 95.877 1.54

Angle Coeffs

1 62.0965 114.

Atoms

1 1 1 0. 21.59447 7.846566 23.601622
2 1 2 0. 22.102432 6.63182 22.802895
3 1 2 0. 23.595457 6.705477 22.432692
4 2 1 0. 24.463084 25.701427 14.22543
5 2 2 0. 23.15313 25.296808 14.92679
6 2 2 0. 23.156081 25.539337 16.447569
7 3 1 0. 17.967017 15.459623 30.025583
8 3 2 0. 18.524917 14.024232 30.024989
9 3 2 0. 20.039446 13.940978 29.758777
10 4 1 0. 21.828955 26.637366 9.432983
11 4 2 0. 21.807298 25.43798 10.398697
12 4 2 0. 20.95893 25.667288 11.663328
13 5 1 0. 22.707785 20.511412 4.20285
14 5 2 0. 22.880258 20.591134 2.674617
15 5 2 0. 22.865889 19.221677 1.970359
16 6 1 0. 2.14798 13.414857 27.459499
17 6 2 0. 2.068005 14.296793 28.719418
18 6 2 0. 1.976341 13.502218 30.035415
19 7 1 0. 10.981724 6.796126 2.433439
20 7 2 0. 11.291462 7.517068 3.758545
21 7 2 0. 12.03223 6.643961 4.788373
22 8 1 0. 9.943426 7.022141 8.133983
23 8 2 0. 9.562579 8.270673 8.951126
24 8 2 0. 8.578442 7.989922 10.101888
25 9 1 0. 10.216569 21.044696 29.972766
26 9 2 0. 9.458708 19.705172 30.026827
27 9 2 0. 8.149663 19.692935 29.215746
28 10 1 0. 26.06 27.621451 26.243823
29 10 2 0. 25.928409 28.899036 27.093563
30 10 2 0. 25.128083 30.024686 26.412394
31 11 1 0. 2.817118 4.718503 7.730996
32 11 2 0. 3.325427 3.266441 7.799837
33 11 2 0. 2.204199 2.212506 7.86039
34 12 1 0. 14.3401 1.970142 20.529139
35 12 2 0. 14.292694 2.271862 19.019729
36 12 2 0. 15.595776 2.871772 18.459652
37 13 1 0. 26.371553 1.929083 3.38549
38 13 2 0. 26.242865 2.601517 2.006044
39 13 2 0. 26.944223 3.969024 1.90795
40 14 1 0. 23.996789 5.707436 11.936277
41 14 2 0. 22.514174 5.822996 12.336403
42 14 2 0. 21.5336 5.664534 11.159558
43 15 1 0. 21.347644 24.995447 30.026557
44 15 2 0. 20.142815 24.346929 29.319865
45 15 2 0. 18.796165 24.592469 30.025445
46 16 1 0. 10.497496 1.96203 25.793995
47 16 2 0. 11.400405 2.799081 24.868955
48 16 2 0. 12.189345 1.965623 23.842057
49 17 1 0. 24.458586 13.258916 16.053322
50 17 2 0. 24.213297 12.034226 15.152451
51 17 2 0. 22.772877 11.492522 15.21031
52 18 1 0. 22.917472 1.974845 8.901301
53 18 2 0. 23.153407 1.979028 10.423115
54 18 2 0. 24.639596 1.971585 10.826584
55 19 1 0. 9.094972 18.46592 3.612348
56 19 2 0. 7.641696 18.943139 3.433881
57 19 2 0. 7.21164 19.105139 1.964048
58 20 1 0. 20.179791 7.095296 30.026091
59 20 2 0. 20.568804 7.766668 28.695855
60 20 2 0. 20.170224 9.251322 28.603455
61 21 1 0. 14.137178 5.404274 23.719209
62 21 2 0. 15.278185 4.419149 24.034219
63 21 2 0. 15.247261 3.863286 25.470068
64 22 1 0. 21.194272 28.939 25.153648
65 22 2 0. 21.841596 29.980316 24.221859
66 22 2 0. 21.226079 30.026811 22.810981
67 23 1 0. 14.366085 28.774805 1.962391
68 23 2 0. 13.486258 30.038693 1.971972
69 23 2 0. 12.016715 29.776051 2.350209
70 24 1 0. 6.320364 17.45 20.29839
71 24 2 0. 6.766309 16.209888 21.095185
72 24 2 0. 8.232804 15.805438 20.855576
73 25 1 0. 2.310487 19.113713 12.967387
74 25 2 0. 2.887959 18.867743 11.561106
75 25 2 0. 1.973171 19.341917 10.416588
76 26 1 0. 19.760067 23.124052 20.963828
77 26 2 0. 20.868112 24.191525 21.029671
78 26 2 0. 22.122149 23.844275 20.206015
79 27 1 0. 1.97441 13.409164 4.57165
80 27 2 0. 1.974674 12.332163 3.470891
81 27 2 0. 2.252282 12.879978 2.058647
82 28 1 0. 2.08999 9.186969 18.899206
83 28 2 0. 1.971325 7.887988 19.717843
84 28 2 0. 2.170256 8.081834 21.232587
85 29 1 0. 23.137184 9.674906 11.722524
86 29 2 0. 22.534413 9.854376 10.316801
87 29 2 0. 23.016942 8.812367 9.290652
88 30 1 0. 12.464381 10.84743 1.988246
89 30 2 0. 13.116834 11.762606 3.041032
90 30 2 0. 14.502105 11.284515 3.514376
91 31 1 0. 1.966481 18.679204 30.030805
92 31 2 0. 2.476081 20.053135 29.557284
93 31 2 0. 1.970048 20.461822 28.161395
94 32 1 0. 10.608628 29.629061 11.97148
95 32 2 0. 10.482883 28.095996 12.045643
96 32 2 0. 10.1121 27.564788 13.442761
97 33 1 0. 7.514259 6.499193 4.301827
98 33 2 0. 8.242059 5.332804 4.995689
99 33 2 0. 7.401449 4.621842 6.072494
100 34 1 0. 16.495753 28.974968 5.282799
101 34 2 0. 15.410261 30.032215 5.557634
102 34 2 0. 14.016804 29.440504 5.840042
103 35 1 0. 28.69576 1.946866 17.253281
104 35 2 0. 30.04295 2.172178 17.964557
105 35 2 0. 29.910072 2.698972 19.40554
106 36 1 0. 5.803118 9.746891 5.760172
107 36 2 0. 6.170457 9.185347 7.146292
108 36 2 0. 5.535923 7.816733 7.455911
109 37 1 0. 6.280476 23.386433 30.029871
110 37 2 0. 5.610015 22.69328 28.829196
111 37 2 0. 5.505641 23.578242 27.573192
112 38 1 0. 30.046985 28.948617 16.055467
113 38 2 0. 29.903086 30.048538 14.98726
114 38 2 0. 29.901139 29.520382 13.540662
115 39 1 0. 23.441381 26.766047 22.562769
116 39 2 0. 24.418519 25.747433 23.178583
117 39 2 0. 25.541726 25.300983 22.224282
118 40 1 0. 30.030275 20.064647 6.062144
119 40 2 0. 29.713383 21.570666 6.006578
120 40 2 0. 28.320225 21.938093 6.550367
121 41 1 0. 23.357937 16.941866 23.175683
122 41 2 0. 21.992024 16.808545 23.874329
123 41 2 0. 22.03422 17.080828 25.38948
124 42 1 0. 3.290998 24.093735 23.56742
125 42 2 0. 1.97173 24.308633 24.332239
126 42 2 0. 1.993164 23.780735 25.778774
127 43 1 0. 11.066112 21.014857 5.89463
128 43 2 0. 11.241477 20.511652 7.339494
129 43 2 0. 10.715776 21.485761 8.410171
130 44 1 0. 30.027926 22.630668 20.54688
131 44 2 0. 29.259778 22. 19.370959
132 44 2 0. 30.028633 22.020826 18.036796
133 45 1 0. 27.19023 13.575033 1.966845
134 45 2 0. 26.399857 14.809323 2.439538
135 45 2 0. 25.8691 14.698949 3.880966
136 46 1 0. 28.566655 1.960991 8.426102
137 46 2 0. 29.989492 2.490724 8.684011
138 46 2 0. 30.046788 3.991093 9.026371
139 47 1 0. 13.492499 15.65266 4.769694
140 47 2 0. 12.57147 15.643347 3.535506
141 47 2 0. 11.156503 15.10303 3.81394
142 48 1 0. 6.690673 1.967808 21.736329
143 48 2 0. 6.681196 2.093888 23.27113
144 48 2 0. 5.280893 1.974418 23.900793
145 49 1 0. 17.376287 22.374925 1.97464
146 49 2 0. 18.686533 23.181004 2.046008
147 49 2 0. 19.619742 22.758971 3.196055
148 50 1 0. 8.680733 28.927685 16.883363
149 50 2 0. 10.070808 29.527976 17.164328
150 50 2 0. 10.255133 30.03253 18.607605
151 51 1 0. 30.028993 28.454639 4.01126
152 51 2 0. 29.279099 28.942748 2.757862
153 51 2 0. 30.025561 30.032408 1.966006
154 52 1 0. 9.937524 23.683327 16.564536
155 52 2 0. 9.795615 24.410422 17.914645
156 52 2 0. 9.96751 23.494328 19.140543
157 53 1 0. 18.443838 20.38978 23.491719
158 53 2 0. 18.917634 19.346504 24.520647
159 53 2 0. 19.362138 19.950388 25.865764
160 54 1 0. 15.07396 25.912979 29.974315
161 54 2 0. 13.785439 26.75538 30.015213
162 54 2 0. 12.490926 25.923173 29.958063
163 55 1 0. 6.892615 4.340721 9.979314
164 55 2 0. 6.480393 2.865867 10.142036
165 55 2 0. 6.874202 1.970518 8.952556
166 56 1 0. 2.805376 25.327766 19.216929
167 56 2 0. 1.995687 26.045647 18.121188
168 56 2 0. 1.985152 25.311352 16.767563
169 57 1 0. 17.543912 30.022019 27.458134
170 57 2 0. 17.307435 29.129532 28.69067
171 57 2 0. 17.367356 29.884583 30.031531
172 58 1 0. 26.239167 18.630884 3.938398
173 58 2 0. 27.005648 19.874074 3.449945
174 58 2 0. 26.750239 20.227123 1.97288
175 59 1 0. 29.292062 25.881469 18.427043
176 59 2 0. 27.914717 25.702493 19.09224
177 59 2 0. 26.730276 25.781802 18.111215
178 60 1 0. 29.998093 2.352523 12.640985
179 60 2 0. 28.494271 2.491404 12.339603
180 60 2 0. 27.579459 1.972531 13.464542
181 61 1 0. 24.539699 10.482077 27.814457
182 61 2 0. 23.499822 11.373385 28.518606
183 61 2 0. 23.357769 11.098137 30.027135
184 62 1 0. 22.395285 2.857995 24.259228
185 62 2 0. 22.647754 2.054481 22.969955
186 62 2 0. 22.426388 2.860137 21.676311
187 63 1 0. 4.293482 9.49912 1.987864
188 63 2 0. 3.435027 8.314433 2.468668
189 63 2 0. 1.974522 8.361214 1.982523
190 64 1 0. 24.570358 21.187961 28.08706
191 64 2 0. 23.428828 22.220413 28.137581
192 64 2 0. 23.641431 23.434925 27.21489
193 65 1 0. 22.711306 6.563475 18.586041
194 65 2 0. 22.086783 6.717588 17.186821
195 65 2 0. 23.113236 6.971798 16.06728
196 66 1 0. 17.55823 14.566662 11.181
197 66 2 0. 17.607437 15.733553 12.184765
198 66 2 0. 18.95472 16.478952 12.213179
199 67 1 0. 5.401571 26.936257 15.632119
200 67 2 0. 6.54159 25.909467 15.499235
201 67 2 0. 6.098434 24.450259 15.713538
202 68 1 0. 19.440045 7.68893 2.97536
203 68 2 0. 18.593978 8.745624 2.241078
204 68 2 0. 18.321567 10.015459 3.068673
205 69 1 0. 16.013339 6.761043 19.007161
206 69 2 0. 14.860544 6.459535 19.982741
207 69 2 0. 13.523013 6.136509 19.291174
208 70 1 0. 27.648548 18.977203 21.751818
209 70 2 0. 29.035091 19.264197 22.357403
210 70 2 0. 30.033269 18.1 22.216588
211 71 1 0. 30.02473 18.18551 14.33279
212 71 2 0. 29.770512 16.694372 14.043862
213 71 2 0. 30.032154 16.286082 12.582205
214 72 1 0. 30.040683 12.522311 7.013588
215 72 2 0. 29.219268 12.644526 5.716691
216 72 2 0. 30.026511 12.365241 4.435301
217 73 1 0. 28.938443 5.829221 16.569964
218 73 2 0. 28.010483 5.380037 15.425969
219 73 2 0. 26.573917 5.055005 15.875673
220 74 1 0. 15.07883 8.464033 12.450727
221 74 2 0. 14.189352 7.567106 11.569846
222 74 2 0. 14.853512 6.241363 11.154038
223 75 1 0. 10.33597 1.961202 5.531499
224 75 2 0. 10.938399 2.54737 4.241117
225 75 2 0. 10.337449 1.964846 2.948397
226 76 1 0. 4.27768 28.122518 6.245003
227 76 2 0. 2.916695 28.783878 5.958785
228 76 2 0. 2.629332 30.025317 6.823569
229 77 1 0. 1.974924 9.55387 30.027151
230 77 2 0. 2.655733 8.177934 29.905087
231 77 2 0. 1.970936 7.226648 28.906234
232 78 1 0. 22.230423 21.509331 23.588982
233 78 2 0. 23.26521 20.69874 24.391328
234 78 2 0. 24.679912 20.712598 23.783031
235 79 1 0. 25.927685 12.450145 24.683913
236 79 2 0. 24.931114 13.418558 24.020119
237 79 2 0. 23.464689 13.185645 24.428716
238 80 1 0. 6.030429 9.293544 18.647041
239 80 2 0. 5.83137 9.107884 20.162794
240 80 2 0. 5.364618 10.38045 20.893764
241 81 1 0. 1.964682 8.97885 8.678672
242 81 2 0. 2.03175 9.747878 7.346119
243 81 2 0. 1.972248 8.846382 6.098977
244 82 1 0. 28.488654 10.574664 19.940332
245 82 2 0. 29.878915 9.913988 19.988083
246 82 2 0. 30.033223 8.710142 19.040166
247 83 1 0. 2.809935 4.624274 25.47833
248 83 2 0. 2.042152 3.725162 26.465096
249 83 2 0. 1.972101 2.246433 26.040771
250 84 1 0. 30.041072 12.072369 12.572652
251 84 2 0. 28.663349 12.607486 12.140069
252 84 2 0. 27.631858 12.677107 13.281462
253 85 1 0. 3.283412 21.098546 16.249222
254 85 2 0. 1.973023 21.297437 17.033393
255 85 2 0. 2.172399 21.486776 18.548648
256 86 1 0. 1.980526 27.147065 9.462353
257 86 2 0. 3.136563 26.180139 9.778954
258 86 2 0. 4.49527 26.874818 9.986166
259 87 1 0. 30.027315 30.030471 26.548703
260 87 2 0. 30.004632 30.02357 25.008886
261 87 2 0. 28.588749 30.032764 24.403253
262 88 1 0. 18.840229 9.329138 11.611576
263 88 2 0. 18.4072 10.009284 10.299522
264 88 2 0. 18.848104 9.258191 9.029458
265 89 1 0. 12.84825 13.718871 23.91707
266 89 2 0. 11.885614 12.530199 24.09593
267 89 2 0. 12.483184 11.354371 24.890877
268 90 1 0. 20.095559 13.662629 22.422864
269 90 2 0. 19.117998 12.656173 21.788026
270 90 2 0. 17.872409 13.30565 21.156924
271 91 1 0. 1.966541 5.522267 15.023701
272 91 2 0. 2.573719 6.45782 16.085622
273 91 2 0. 3.764709 5.849334 16.849093
274 92 1 0. 6.642202 26.240524 19.434008
275 92 2 0. 7.477096 26.120445 20.722469
276 92 2 0. 6.635602 26.061103 22.010866
277 93 1 0. 22.881458 15.742794 18.688607
278 93 2 0. 22.527751 14.40067 19.355835
279 93 2 0. 21.361952 13.653899 18.681413
280 94 1 0. 1.966696 18.154513 2.604701
281 94 2 0. 3.48027 17.909095 2.461644
282 94 2 0. 3.841938 16.494476 1.972105
283 95 1 0. 30.057211 22.94586 30.026509
284 95 2 0. 29.894878 21.492044 29.545193
285 95 2 0. 28.510121 20.885788 29.839304
286 96 1 0. 18.645354 12.428909 26.386537
287 96 2 0. 17.912916 13.721691 25.981753
288 96 2 0. 18.76283 14.996914 26.133585
289 97 1 0. 30.030668 6.621179 1.974083
290 97 2 0. 29.195344 7.914472 1.939018
291 97 2 0. 30.029324 9.202526 2.069377
292 98 1 0. 10.344768 18.656284 24.442825
293 98 2 0. 10.245016 18.950258 25.951211
294 98 2 0. 11.567725 18.756975 26.715856
295 99 1 0. 6.890154 21.914893 9.293552
296 99 2 0. 5.76798 22.937243 9.034464
297 99 2 0. 6.069242 23.921069 7.888634
298 100 1 0. 16.782165 24.696581 18.900277
299 100 2 0. 16.494722 25.523275 20.167382
300 100 2 0. 17.653982 26.444457 20.590632
301 101 1 0. 12.61656 1.974319 8.75626
302 101 2 0. 13.733476 2.793469 9.429382
303 101 2 0. 15.078863 2.051334 9.533157
304 102 1 0. 19.212014 25.323453 15.1884
305 102 2 0. 19.07067 26.800506 15.600632
306 102 2 0. 19.369509 27.067161 17.087639
307 103 1 0. 22.205384 10.322056 1.968205
308 103 2 0. 23.358682 11.341556 2.014266
309 103 2 0. 24.339694 11.125228 3.181492
310 104 1 0. 6.542272 2.422563 1.954315
311 104 2 0. 5.638819 3.368124 2.76751
312 104 2 0. 5.037966 4.522418 1.943993
313 105 1 0. 15.367914 24.574133 14.674744
314 105 2 0. 15.902503 24.396881 13.241427
315 105 2 0. 14.815435 24.474545 12.153379
316 106 1 0. 16.283814 5.547985 1.949141
317 106 2 0. 14.857476 6.127037 1.99227
318 106 2 0. 14.804924 7.665812 1.960498
319 107 1 0. 9.487218 28.496492 30.027414
320 107 2 0. 10.031935 29.936936 30.025115
321 107 2 0. 11.569376 30.02519 30.015851
322 108 1 0. 4.943543 22.053014 12.79479
323 108 2 0. 4.027199 23.269105 12.564494
324 108 2 0. 2.658506 22.91531 11.953669
325 109 1 0. 30.025436 1.968448 30.025925
326 109 2 0. 30.03635 3.508409 30.025312
327 109 2 0. 28.653111 4.14451 29.793738
328 110 1 0. 15.57426 30.027409 22.365654
329 110 2 0. 16.3323 29.904396 23.700511
330 110 2 0. 17.526039 28.932502 23.655682
331 111 1 0. 6.552979 30.024998 23.113985
332 111 2 0. 7.517074 30.012911 21.913162
333 111 2 0. 6.812368 30.027463 20.543937
334 112 1 0. 5.146861 26.956357 25.558114
335 112 2 0. 4.260288 28.00743 26.251537
336 112 2 0. 2.775133 27.610927 26.344803
337 113 1 0. 9.47774 10.759581 29.995043
338 113 2 0. 10.941992 11.23546 30.028307
339 113 2 0. 11.455614 11.776276 28.680972
340 114 1 0. 14.572741 21.960662 9.116492
341 114 2 0. 14.241735 23.265467 8.368481
342 114 2 0. 14.609161 23.240727 6.87316
343 115 1 0. 30.031314 14.282771 17.161017
344 115 2 0. 29.195904 13.016409 16.896408
345 115 2 0. 30.033354 11.782627 16.511624
346 116 1 0. 2.063159 13.075019 17.903981
347 116 2 0. 2.382239 13.09223 19.410464
348 116 2 0. 1.974106 14.395408 20.122331
349 117 1 0. 20.358713 29.73829 4.971493
350 117 2 0. 21.274769 29.762692 6.209171
351 117 2 0. 20.532349 30.023784 7.532895
352 118 1 0. 30. 26.559183 28.432868
353 118 2 0. 30. 27.137707 29.860071
354 118 2 0. 29.121983 28.392205 30.026875
355 119 1 0. 1.972023 20.376529 23.775612
356 119 2 0. 2.89971 20.094046 22.579285
357 119 2 0. 2.372244 19.01126 21.619622
358 120 1 0. 12.252748 22.114171 24.380235
359 120 2 0. 12.989936 21.51691 23.167208
360 120 2 0. 12.6156 22.169192 21.823333
361 121 1 0. 28.619983 15.338595 24.661977
362 121 2 0. 28.628553 14.931894 26.147278
363 121 2 0. 30.037217 14.834419 26.761902
364 122 1 0. 12.027382 29.153906 23.867763
365 122 2 0. 12.600247 30.043744 24.986518
366 122 2 0. 12.825729 29.306519 26.319657
367 123 1 0. 23.536711 30.058037 30.029353
368 123 2 0. 22.254063 29.216378 29.895101
369 123 2 0. 21.178445 29.852983 28.995447
370 124 1 0. 21.346131 13.72379 10.443859
371 124 2 0. 21.673061 13.366528 11.905735
372 124 2 0. 22.342944 14.507018 12.694492
373 125 1 0. 4.796358 7.933127 11.33392
374 125 2 0. 5.105048 6.882834 12.417062
375 125 2 0. 5.590109 7.481882 13.750275
376 126 1 0. 9.988195 4.108246 21.359173
377 126 2 0. 10.701352 3.460844 20.157559
378 126 2 0. 10.06219 2.141359 19.686357
379 127 1 0. 30.069055 1.943891 4.773223
380 127 2 0. 30.073277 3.391297 4.247298
381 127 2 0. 29.341157 4.391818 5.160839
382 128 1 0. 1.96984 30.03854 23.334997
383 128 2 0. 2.786384 28.941757 22.626532
384 128 2 0. 1.972497 27.681899 22.277327
385 129 1 0. 26.77221 9.747478 10.178939
386 129 2 0. 27.859511 9.986942 9.114968
387 129 2 0. 29.280558 9.613968 9.576611
388 130 1 0. 14.777262 25.886421 26.008697
389 130 2 0. 13.734465 25.740458 24.884923
390 130 2 0. 14.335768 25.751007 23.467205
391 131 1 0. 24.871647 2.731072 18.576929
392 131 2 0. 25.838109 3.134829 19.705881
393 131 2 0. 26.229175 1.974915 20.640368
394 132 1 0. 18.726058 25.977925 26.013277
395 132 2 0. 19.307312 24.845718 25.146183
396 132 2 0. 20.823985 24.957936 24.903882
397 133 1 0. 4.356142 21.813331 2.299635
398 133 2 0. 2.941573 21.97184 2.887401
399 133 2 0. 1.961407 22.722777 1.967093
400 134 1 0. 18.533894 2.027287 24.27536
401 134 2 0. 18.680149 2.749065 22.922863
402 134 2 0. 18.103004 1.965707 21.729191
403 135 1 0. 8.871841 26.556515 8.78442
404 135 2 0. 10.330689 26.102007 8.592632
405 135 2 0. 10.566862 25.277435 7.313607
406 136 1 0. 4.681976 14.937474 13.433082
407 136 2 0. 4.215937 13.678479 14.187629
408 136 2 0. 5.279572 12.567838 14.269826
409 137 1 0. 21.181026 9.726047 5.876923
410 137 2 0. 21.342218 11.252352 5.750397
411 137 2 0. 21.972811 11.920218 6.986482
412 138 1 0. 24.889882 14.96758 27.653389
413 138 2 0. 23.824793 15.586708 28.577438
414 138 2 0. 23.83096 15.018867 30.008912
415 139 1 0. 19.369951 5.652991 7.50223
416 139 2 0. 20.602887 5.885844 6.609343
417 139 2 0. 21.928709 5.417964 7.237742
418 140 1 0. 26.433704 8.9644 14.035541
419 140 2 0. 27.246388 9.254148 15.311155
420 140 2 0. 26.497009 8.933185 16.617682
421 141 1 0. 8.896725 23.963647 25.338281
422 141 2 0. 9.35882 23.44825 26.713939
423 141 2 0. 9.350919 24.520334 27.819458
424 142 1 0. 24.498546 19.309488 19.203706
425 142 2 0. 23.476855 20.059748 20.078268
426 142 2 0. 22.142118 19.313841 20.261848
427 143 1 0. 24.788822 20.48478 7.559834
428 143 2 0. 24.681704 19.690551 8.874872
429 143 2 0. 23.387075 19.958361 9.664691
430 144 1 0. 28.980025 10.093466 23.829815
431 144 2 0. 28.103667 8.829557 23.908111
432 144 2 0. 26.787283 8.929982 23.115238
433 145 1 0. 2.967989 17.569161 17.99119
434 145 2 0. 3.193976 17.144333 16.528299
435 145 2 0. 1.974707 16.464602 15.877952
436 146 1 0. 11.167354 2.187026 29.925854
437 146 2 0. 12.69122 1.966895 29.894669
438 146 2 0. 13.336208 2.244014 28.523978
439 147 1 0. 12.326394 2.052446 15.598773
440 147 2 0. 13.771883 1.973236 15.073525
441 147 2 0. 13.896458 2.166232 13.550754
442 148 1 0. 6.194656 9.162038 24.624879
443 148 2 0. 5.864798 8.081459 25.67137
444 148 2 0. 5.436616 8.64433 27.039375
445 149 1 0. 18.227137 6.826089 25.39639
446 149 2 0. 17.297242 7.042895 26.604649
447 149 2 0. 15.992125 7.786531 26.265127
448 150 1 0. 30.05082 2.908939 24.842406
449 150 2 0. 29.936219 3.830088 26.071207
450 150 2 0. 30.042769 5.330567 25.741344
451 151 1 0. 12.719841 19.411323 2.360829
452 151 2 0. 13.20849 20.855157 2.580294
453 151 2 0. 12.289894 21.92756 1.965693
454 152 1 0. 25.30382 13.623562 10.234241
455 152 2 0. 26.227894 13.582382 9.002986
456 152 2 0. 25.479767 13.608937 7.657177
457 153 1 0. 8.892712 18.366278 11.016352
458 153 2 0. 7.395779 18.562481 11.32015
459 153 2 0. 6.512501 17.367946 10.914556
460 154 1 0. 17.590378 12.151653 6.596422
461 154 2 0. 17.833604 13.137022 5.438195
462 154 2 0. 18.806129 14.280421 5.782338
463 155 1 0. 25.102766 23.595886 4.796238
464 155 2 0. 26.189427 23.729382 3.713212
465 155 2 0. 25.785396 24.625292 2.527588
466 156 1 0. 13.437011 27.986906 19.744754
467 156 2 0. 12.392185 26.864171 19.605452
468 156 2 0. 11.364547 26.819133 20.751546
469 157 1 0. 11.31 19.446195 19.277446
470 157 2 0. 9.791393 19.1905 19.272619
471 157 2 0. 9.062229 19.771731 18.047021
472 158 1 0. 26.221008 6.211519 26.206018
473 158 2 0. 24.844912 6.90212 26.173933
474 158 2 0. 23.657724 5.942811 26.378655
475 159 1 0. 25.681294 4.33713 6.645018
476 159 2 0. 25.705387 4.669726 8.14848
477 159 2 0. 25.83992 6.172822 8.455406
478 160 1 0. 13.508132 27.977932 15.421441
479 160 2 0. 13.796563 28.799149 14.151004
480 160 2 0. 14.965404 28.257673 13.307077
481 161 1 0. 10.387691 2.887814 11.886714
482 161 2 0. 9.278595 3.193365 12.910504
483 161 2 0. 8.840782 1.973616 13.742448
484 162 1 0. 15.295044 16.740264 26.865329
485 162 2 0. 14.226815 15.650784 27.073945
486 162 2 0. 14.575411 14.634933 28.177633
487 163 1 0. 5.160038 13.07388 7.789972
488 163 2 0. 4.569633 12.295511 8.980418
489 163 2 0. 5.27363 12.573443 10.32159
490 164 1 0. 27.773611 30.027322 20.537785
491 164 2 0. 26.397279 29.371403 20.754767
492 164 2 0. 25.559557 30.026964 21.868347
493 165 1 0. 29.748179 16.400834 4.61589
494 165 2 0. 29.908388 17.199133 3.308736
495 165 2 0. 30.028135 16.321108 2.049238
496 166 1 0. 8.578898 15.4 13.882589
497 166 2 0. 9.700928 16.094554 14.676528
498 166 2 0. 9.468377 16.119116 16.19867
499 167 1 0. 22.148439 16.721267 7.770364
500 167 2 0. 23.25045 16.724408 6.694649
501 167 2 0. 22.717664 16.645793 5.251889
502 168 1 0. 8.915334 14.728449 25.490903
503 168 2 0. 7.74093 14.274495 24.604167
504 168 2 0. 7.828611 12.804799 24.152607
505 169 1 0. 24.238322 7.248402 30.060884
506 169 2 0. 25.197666 6.044511 30.017233
507 169 2 0. 24.488318 4.677644 30.027155
508 170 1 0. 26.170051 15.426758 20.852649
509 170 2 0. 27.07131 14.252458 20.427972
510 170 2 0. 28.550615 14.424624 20.819908
511 171 1 0. 12.981171 18.506632 10.32884
512 171 2 0. 13.248306 19.240858 11.655924
513 171 2 0. 12.480762 18.660602 12.858329
514 172 1 0. 9.018056 26.892542 2.093282
515 172 2 0. 9.195922 27.294382 3.569253
516 172 2 0. 8.15256 26.674528 4.517291
517 173 1 0. 16.062448 14.569256 1.972653
518 173 2 0. 16.697621 15.894279 2.433598
519 173 2 0. 15.932618 17.149097 1.973377
520 174 1 0. 8.923297 28.014401 26.027923
521 174 2 0. 8.882866 29.535471 26.265219
522 174 2 0. 7.583892 30.031885 26.926913
523 175 1 0. 5.846052 16.58259 30.003471
524 175 2 0. 5.280882 17.038676 28.645469
525 175 2 0. 5.837658 16.257165 27.44096
526 176 1 0. 29.798159 18.065374 18.273875
527 176 2 0. 28.353286 18.446735 17.90171
528 176 2 0. 27.448872 17.241043 17.58557
529 177 1 0. 29.741211 8.987924 27.5444
530 177 2 0. 30.029673 7.979082 28.671621
531 177 2 0. 29.513786 8.420024 30.054022
532 178 1 0. 18.4 6.505625 15.711576
533 178 2 0. 18.39705 5.346895 14.697211
534 178 2 0. 18.178415 5.79144 13.239069
535 179 1 0. 9.303156 9.554452 16.382673
536 179 2 0. 8.547174 9.752012 15.055623
537 179 2 0. 9.216927 9.07355 13.846193
538 180 1 0. 2.021027 1.973118 1.971028
539 180 2 0. 2.003464 2.002018 3.510657
540 180 2 0. 1.924771 3.418548 4.109696
541 181 1 0. 27.129512 17.190283 30.028789
542 181 2 0. 28.4 16.32011 30.033422
543 181 2 0. 29.711658 17.126471 30.
544 182 1 0. 22.614936 29.177065 17.887662
545 182 2 0. 22.3901 30.030116 16.625381
546 182 2 0. 22.192762 29.20607 15.339455
547 183 1 0. 17.617568 19.462322 9.41379
548 183 2 0. 18.428411 18.369548 8.692694
549 183 2 0. 17.562309 17.294302 8.010554
550 184 1 0. 25.920942 30.025285 4.533667
551 184 2 0. 24.902296 30.025129 3.378695
552 184 2 0. 25.541877 29.957372 1.97943
553 185 1 0. 18.380179 1.966439 6.298542
554 185 2 0. 18.790917 1.996471 4.81463
555 185 2 0. 18.735172 3.397385 4.177503
556 186 1 0. 29.668044 25.091515 1.971629
557 186 2 0. 30.027286 23.83418 2.785048
558 186 2 0. 29.970559 22.526187 1.974162
559 187 1 0. 30.026873 16.123325 8.636002
560 187 2 0. 29.146837 17.374295 8.815477
561 187 2 0. 27.692949 17.190511 8.342155
562 188 1 0. 28.405548 25.72737 14.465004
563 188 2 0. 29.837645 25.589253 13.915805
564 188 2 0. 29.939731 25.743088 12.386912
565 189 1 0. 2.193109 26.664237 2.067611
566 189 2 0. 3.454828 26.268981 2.857192
567 189 2 0. 4.621674 25.789158 1.974107
568 190 1 0. 6.642688 5.942157 22.381331
569 190 2 0. 5.167862 5.624127 22.072551
570 190 2 0. 4.894538 5.294857 20.593201
571 191 1 0. 19.464415 2.202235 18.028854
572 191 2 0. 20.226312 3.47144 18.453393
573 191 2 0. 19.325609 4.578818 19.031362
574 192 1 0. 19.217914 13.213921 15.225698
575 192 2 0. 18.87199 11.815963 14.680124
576 192 2 0. 18.939787 10.697062 15.73609
577 193 1 0. 7.908399 24.5543 12.05
578 193 2 0. 9.110375 23.820726 12.673471
579 193 2 0. 10.333767 23.719968 11.743548
580 194 1 0. 7.32088 4.150434 26.639854
581 194 2 0. 6.600557 3.064446 27.460443
582 194 2 0. 7.531052 2.257656 28.385034
583 195 1 0. 17.345825 20.665713 5.65569
584 195 2 0. 17.577671 19.469641 4.713745
585 195 2 0. 19.054941 19.056228 4.578231
586 196 1 0. 20.114194 21.270232 17.493979
587 196 2 0. 21.073023 22.195216 16.721547
588 196 2 0. 22.506148 21.646105 16.594142
589 197 1 0. 14.683895 21.368382 18.555117
590 197 2 0. 13.944929 22.280319 17.558172
591 197 2 0. 13.301829 21.52749 16.37865
592 198 1 0. 19.270616 19.491468 30.007656
593 198 2 0. 20.436424 18.527202 29.720107
594 198 2 0. 21.826075 19.115112 30.028052
595 199 1 0. 7.765321 29.995916 7.188531
596 199 2 0. 9.099174 30.027337 6.419474
597 199 2 0. 10.343872 29.916112 7.319449
598 200 1 0. 21.101245 2.713089 29.507584
599 200 2 0. 21.044663 2.77849 27.970014
600 200 2 0. 20.342766 4.034888 27.421921
601 201 1 0. 6.123913 22.165726 21.603334
602 201 2 0. 5.785732 21.480639 20.266214
603 201 2 0. 6.187548 22.29798 19.024402
604 202 1 0. 6.066278 14.630333 17.544194
605 202 2 0. 6.281694 13.188225 18.039693
606 202 2 0. 7.756211 12.829795 18.302233
607 203 1 0. 28.594574 29.808978 7.433053
608 203 2 0. 29.248344 29.799624 8.827362
609 203 2 0. 28.258377 30.026982 9.984891
610 204 1 0. 26.344868 23.488148 9.599285
611 204 2 0. 25.771188 24.893063 9.337171
612 204 2 0. 26.571093 26.029946 10.
613 205 1 0. 8.090175 23.055473 1.962009
614 205 2 0. 8.735411 22.944601 3.355916
615 205 2 0. 7.724185 22.745506 4.500198
616 206 1 0. 23.566959 10.543224 21.494607
617 206 2 0. 24.416692 10.248675 20.24449
618 206 2 0. 23.667483 10.455169 18.914961
619 207 1 0. 1.96091 30.032042 16.590166
620 207 2 0. 3.3396 29.975804 17.274017
621 207 2 0. 3.273839 29.805443 18.803151
622 208 1 0. 16.749253 4.333559 29.704476
623 208 2 0. 17.189904 2.893572 30.026756
624 208 2 0. 17.267207 1.97179 28.79552
625 209 1 0. 9.363211 10.031084 21.671033
626 209 2 0. 10.77937 9.459912 21.87068
627 209 2 0. 10.886607 7.945899 21.610175
628 210 1 0. 25. 7.405652 2.028524
629 210 2 0. 24.693708 6.837191 3.426434
630 210 2 0. 23.228129 7.012341 3.865753
631 211 1 0. 13.549785 28.194364 9.558694
632 211 2 0. 13.894625 29.67873 9.780823
633 211 2 0. 15.369615 30.026852 9.507296
634 212 1 0. 27.941484 23.224541 26.582044
635 212 2 0. 27.290374 23.371427 25.194211
636 212 2 0. 28.08214 22.700117 24.056647
637 213 1 0. 8.757199 14.339666 9.73463
638 213 2 0. 9.027117 13.500924 8.471596
639 213 2 0. 9.280526 14.339585 7.205092
640 214 1 0. 15.286565 13.589187 15.2816
641 214 2 0. 14.954608 12.294258 14.517031
642 214 2 0. 14.275492 12.527781 13.154729
643 215 1 0. 18.48132 28.742255 11.573417
644 215 2 0. 19.334908 29.731857 12.38808
645 215 2 0. 20.714245 30.025994 11.769604
646 216 1 0. 6.741399 6.412639 30.025845
647 216 2 0. 8.229515 6.807596 29.992366
648 216 2 0. 9.194591 5.608868 29.935098
649 217 1 0. 20.176853 22.161164 7.968755
650 217 2 0. 21.466104 22.649857 7.282745
651 217 2 0. 21.312596 23.99278 6.54478
652 218 1 0. 22.308106 2.204623 2.2722
653 218 2 0. 22.610448 3.131991 3.463913
654 218 2 0. 22.719912 2.400608 4.814726
655 219 1 0. 11.532335 16.343329 30.027855
656 219 2 0. 10.47455 15.603589 29.187929
657 219 2 0. 9.407503 14.874481 30.025432
658 220 1 0. 29.988041 21.823224 10.186686
659 220 2 0. 29.204804 21.512828 11.475792
660 220 2 0. 29.984295 21.812208 12.769765
661 221 1 0. 17.28565 29.948895 18.806745
662 221 2 0. 16.370039 29.580224 17.624654
663 221 2 0. 16.902512 30.037 16.253732
664 222 1 0. 13.167627 9.903173 18.110016
665 222 2 0. 12.614169 11.303957 17.788943
666 222 2 0. 11.538356 11.793769 18.776014
667 223 1 0. 15.474914 20.611276 26.100691
668 223 2 0. 15.873023 22.092252 25.959904
669 223 2 0. 16.711701 22.629786 27.13433
670 224 1 0. 22.012268 25.654713 1.974451
671 224 2 0. 21.6257 26.4 3.26549
672 224 2 0. 22.823737 26.759448 4.16386
673 225 1 0. 15.567966 25.435625 3.696067
674 225 2 0. 14.081686 25.123329 3.441032
675 225 2 0. 13.11347 25.893705 4.357917
676 226 1 0. 1.972338 3.787184 11.47532
677 226 2 0. 1.974098 2.282445 11.802974
678 226 2 0. 2.104205 1.968615 13.305033
679 227 1 0. 25.941412 16.243151 13.120171
680 227 2 0. 26.066333 17.77595 13.200926
681 227 2 0. 26.758573 18.413083 11.98172
682 228 1 0. 23.866782 1.972333 14.811273
683 228 2 0. 22.490562 2.076218 15.494519
684 228 2 0. 21.430733 2.817827 14.658829
685 229 1 0. 17.74779 25.636436 6.982306
686 229 2 0. 18.048744 26.299235 8.339407
687 229 2 0. 17.6253 25.455543 9.556156
688 230 1 0. 14.312819 19.165062 29.942418
689 230 2 0. 15.048339 20.515455 30.026366
690 230 2 0. 14.116311 21.740437 29.977957
691 231 1 0. 11.964094 10.889194 6.780402
692 231 2 0. 13.3545 10.360682 7.17921
693 231 2 0. 13.316714 9.073917 8.024436
694 232 1 0. 1.971429 10.508176 14.90341
695 232 2 0. 2.069908 9.675409 13.611744
696 232 2 0. 1.968682 10.5082 12.320306
697 233 1 0. 26.333056 30.026185 16.86006
698 233 2 0. 26.105218 28.927387 15.805388
699 233 2 0. 26.037546 29.451822 14.359017
700 234 1 0. 13.036307 15.649112 18.302162
701 234 2 0. 14.075167 16.768591 18.104332
702 234 2 0. 13.933005 17.526627 16.771376
703 235 1 0. 8.241739 9.603066 1.970057
704 235 2 0. 8.058398 10.996688 2.599187
705 235 2 0. 8.980793 11.267032 3.802391
706 236 1 0. 14.640349 14.188927 8.254207
707 236 2 0. 13.234469 14.715128 8.598032
708 236 2 0. 12.699006 14.22923 9.957731
709 237 1 0. 20.619967 15.972319 1.973796
710 237 2 0. 21.011423 14.509429 2.253642
711 237 2 0. 19.865034 13.50296 2.042896
712 238 1 0. 14.52318 5.84112 15.350816
713 238 2 0. 13.036366 5.883696 14.951856
714 238 2 0. 12.303533 7.161362 15.401439
715 239 1 0. 29.440808 8.277068 5.864062
716 239 2 0. 27.929899 8.04465 5.67769
717 239 2 0. 27.144498 9.31121 5.289655
718 240 1 0. 6.290604 15.542542 4.921448
719 240 2 0. 6.589634 14.421042 3.909313
720 240 2 0. 7.381187 14.887402 2.673371
721 241 1 0. 25.589602 21.621081 13.967373
722 241 2 0. 26.414555 22.364004 15.034668